formula,element1,n1,element2,n2,element3,n3,crystalsystem,spacegroup,bandgap,,,,,,,,,,,,,,,,,,,,,x
VO,O,1,V,1,cubic,225,1.1025,60486,28681,647627,647635,647633,647603,77705,647609,647611,61631,,,,,,,,,,,,,x
V2O5,O,10,V,4,monoclinic,11,1.6982,59960,59961,156051,,,,,,,,,,,,,,,,,,,,x
V2O3,O,6,V,4,trigonal,167,0.4761,1872,95760,97442,1473,64796,64786,1869,1870,1871,94768,95761,201106,201107,201108,201109,1873,25780,1874,655262,,,,x
V2O5,O,10,V,4,orthorhombic,59,2.1562,99808,647638,157988,41030,653926,82151,82152,24042,40488,15798,94904,60767,,,,,,,,,,,x
V6O13,O,26,V,12,orthorhombic,69,0,62117,,,,,,,,,,,,,,,,,,,,,,x
VO2,O,8,V,4,monoclinic,12,0.5916,73856,199,73855,,,,,,,,,,,,,,,,,,,,x
V2O5,O,20,V,8,orthorhombic,62,2.3329,80594,,,,,,,,,,,,,,,,,,,,,,x
V6O13,O,13,V,6,monoclinic,12,0.5151,40489,30578,16779,15028,50409,,,,,,,,,,,,,,,,,,x
V7O3,O,3,V,7,monoclinic,12,0.1443,77706,200243,163494,,,,,,,,,,,,,,,,,,,,x
VO2,O,4,V,2,orthorhombic,58,0.8619,38054,89471,,,,,,,,,,,,,,,,,,,,,x
V16O3,O,6,V,32,tetragonal,139,0.0396,77707,,,,,,,,,,,,,,,,,,,,,,x
V2O3,O,6,V,4,monoclinic,15,0.5626,655262,95762,95763,97442,6286,,,,,,,,,,,,,,,,,,x
V3O5,O,10,V,6,monoclinic,15,0.0016,15899,32587,653661,195,,,,,,,,,,,,,,,,,,,x
VO2,O,8,V,4,tetragonal,136,0.8765,1504,56003,74705,66665,4110,34416,34417,34418,34419,34420,34421,27482,10141,24926,89471,,,,,,,,x
V8O15,O,30,V,16,triclinic,2,0.5661,98711,,,,,,,,,,,,,,,,,,,,,,x
V2O5,O,10,V,4,monoclinic,15,1.396,156052,156053,156054,,,,,,,,,,,,,,,,,,,,x
VO2,O,8,V,4,orthorhombic,62,1.3755,22303,,,,,,,,,,,,,,,,,,,,,,x
V2O3,O,24,V,16,cubic,206,0,260212,,,,,,,,,,,,,,,,,,,,,,x
V3O5,O,20,V,12,monoclinic,13,0.9893,16445,,,,,,,,,,,,,,,,,,,,,,x
V3O7,O,42,V,18,monoclinic,15,0.996,2338,,,,,,,,,,,,,,,,,,,,,,x
V5O9,O,36,V,20,triclinic,2,0.5186,66584,6097,9037,,,,,,,,,,,,,,,,,,,,x
V6O11,O,22,V,12,triclinic,2,0.7399,196,,,,,,,,,,,,,,,,,,,,,,x
V4O7,O,14,V,8,triclinic,2,0.581,2211,19012,19013,653554,2775,2212,,,,,,,,,,,,,,,,,x
V10O9,O,9,V,10,triclinic,2,1.1358,,,,,,,,,,,,,,,,,,,,,,,x
V25O32,O,32,V,25,monoclinic,5,0.2366,,,,,,,,,,,,,,,,,,,,,,,x
V13O16,O,32,V,26,tetragonal,141,0.0113,77708,,,,,,,,,,,,,,,,,,,,,,x
V4O7,O,14,V,8,triclinic,2,0.7509,,,,,,,,,,,,,,,,,,,,,,,x
V7O13,O,26,V,14,triclinic,1,0.5998,,,,,,,,,,,,,,,,,,,,,,,x
V2O3,O,6,V,4,monoclinic,9,0,33641,,,,,,,,,,,,,,,,,,,,,,x
V7O13,O,26,V,14,triclinic,2,0.5028,,,,,,,,,,,,,,,,,,,,,,,x
VO2,O,8,V,4,triclinic,2,1.2524,,,,,,,,,,,,,,,,,,,,,,,x
VO2,O,8,V,4,monoclinic,10,1.1027,1503,,,,,,,,,,,,,,,,,,,,,,x
V9O17,O,34,V,18,triclinic,2,0.0154,98712,,,,,,,,,,,,,,,,,,,,,,x
V2O5,O,15,V,6,monoclinic,12,1.6586,,,,,,,,,,,,,,,,,,,,,,,x
V2O5,O,20,V,8,orthorhombic,63,2.4243,,,,,,,,,,,,,,,,,,,,,,,x
VO2,O,2,V,1,trigonal,166,0.3971,,,,,,,,,,,,,,,,,,,,,,,x
VO2,O,8,V,4,cubic,227,1.2438,,,,,,,,,,,,,,,,,,,,,,,x
V2O5,O,20,V,8,orthorhombic,62,2.3728,,,,,,,,,,,,,,,,,,,,,,,x
V5O9,O,36,V,20,triclinic,2,0.002,69882,,,,,,,,,,,,,,,,,,,,,,x
V4O9,O,36,V,16,orthorhombic,63,0.8147,174441,,,,,,,,,,,,,,,,,,,,,,x
V2O5,O,10,V,4,orthorhombic,59,1.4027,43132,,,,,,,,,,,,,,,,,,,,,,x
VO2,O,8,V,4,tetragonal,88,1.0869,,,,,,,,,,,,,,,,,,,,,,,x
VO2,O,8,V,4,triclinic,2,1.2022,1501,,,,,,,,,,,,,,,,,,,,,,x
VO,O,2,V,2,trigonal,166,0.7832,28681,,,,,,,,,,,,,,,,,,,,,,x
V5O9,O,18,V,10,triclinic,1,0.757,,,,,,,,,,,,,,,,,,,,,,,x
V4O7,O,14,V,8,triclinic,2,1.0035,,,,,,,,,,,,,,,,,,,,,,,x
V9O17,O,34,V,18,triclinic,1,0.56,98712,,,,,,,,,,,,,,,,,,,,,,x
VO2,O,4,V,2,monoclinic,12,1.0677,,,,,,,,,,,,,,,,,,,,,,,x
VO2,O,8,V,4,tetragonal,141,0.3733,,,,,,,,,,,,,,,,,,,,,,,x
V3O5,O,20,V,12,monoclinic,9,1.0234,32587,195,,,,,,,,,,,,,,,,,,,,,x
VO2,O,32,V,16,orthorhombic,28,0.7988,51213,,,,,,,,,,,,,,,,,,,,,,x
VO2,O,32,V,16,triclinic,1,0.9538,,,,,,,,,,,,,,,,,,,,,,,x
V2O5,O,10,V,4,orthorhombic,43,2.7539,,,,,,,,,,,,,,,,,,,,,,,x
V2O5,O,10,V,4,orthorhombic,59,2.4105,,,,,,,,,,,,,,,,,,,,,,,x
V5O12,O,12,V,5,monoclinic,5,1.3306,,,,,,,,,,,,,,,,,,,,,,,x
V2O5,O,20,V,8,orthorhombic,62,2.5161,,,,,,,,,,,,,,,,,,,,,,,x
VO2,O,8,V,4,orthorhombic,74,0.8155,,,,,,,,,,,,,,,,,,,,,,,x
V3O7,O,21,V,9,tetragonal,139,0,,,,,,,,,,,,,,,,,,,,,,,x
V3O7,O,42,V,18,trigonal,159,1.1608,,,,,,,,,,,,,,,,,,,,,,,x
VO2,O,6,V,3,monoclinic,12,0.2395,,,,,,,,,,,,,,,,,,,,,,,x
V5O12,O,12,V,5,monoclinic,5,1.0074,,,,,,,,,,,,,,,,,,,,,,,x
VO2,O,8,V,4,orthorhombic,62,1.3787,,,,,,,,,,,,,,,,,,,,,,,x
VO2,O,8,V,4,orthorhombic,63,0.8553,,,,,,,,,,,,,,,,,,,,,,,x
V12O29,O,29,V,12,monoclinic,12,0.5361,,,,,,,,,,,,,,,,,,,,,,,x
V2O3,O,9,V,6,monoclinic,12,1.4363,,,,,,,,,,,,,,,,,,,,,,,x
V2O3,O,12,V,8,monoclinic,14,1.2369,,,,,,,,,,,,,,,,,,,,,,,x
V2O5,O,20,V,8,monoclinic,14,2.08,,,,,,,,,,,,,,,,,,,,,,,x
V5O12,O,48,V,20,monoclinic,14,1.0818,,,,,,,,,,,,,,,,,,,,,,,x
V2O3,O,18,V,12,monoclinic,11,0.9128,,,,,,,,,,,,,,,,,,,,,,,x
V5O12,O,12,V,5,triclinic,1,1.1948,,,,,,,,,,,,,,,,,,,,,,,x
V2O5,O,20,V,8,orthorhombic,62,1.7958,,,,,,,,,,,,,,,,,,,,,,,x
V9O22,O,44,V,18,triclinic,1,0.9039,,,,,,,,,,,,,,,,,,,,,,,x
V2O3,O,24,V,16,orthorhombic,61,0.6212,,,,,,,,,,,,,,,,,,,,,,,x
V6O11,O,22,V,12,orthorhombic,63,0.4496,,,,,,,,,,,,,,,,,,,,,,,x
V9O22,O,44,V,18,monoclinic,11,0.0281,,,,,,,,,,,,,,,,,,,,,,,x
V2O5,O,70,V,28,monoclinic,13,2.3263,,,,,,,,,,,,,,,,,,,,,,,x
VO2,O,10,V,5,triclinic,2,0.5491,,,,,,,,,,,,,,,,,,,,,,,x
V4O9,O,36,V,16,orthorhombic,62,0.4051,15041,,,,,,,,,,,,,,,,,,,,,,x
VO2,O,8,V,4,monoclinic,10,0.3536,1503,,,,,,,,,,,,,,,,,,,,,,x
V6O13,O,26,V,12,monoclinic,8,0,16779,,,,,,,,,,,,,,,,,,,,,,x
V8O,O,2,V,16,tetragonal,136,0,166600,,,,,,,,,,,,,,,,,,,,,,x
VO2,O,32,V,16,tetragonal,139,0.1772,51213,51214,,,,,,,,,,,,,,,,,,,,,x
V2O3,O,6,V,4,trigonal,167,0,33641,,,,,,,,,,,,,,,,,,,,,,x
V6O13,O,26,V,12,orthorhombic,63,0,62117,,,,,,,,,,,,,,,,,,,,,,x
V6O13,O,26,V,12,monoclinic,11,0,,,,,,,,,,,,,,,,,,,,,,,x
VO2,O,8,V,4,triclinic,1,0.7758,22303,,,,,,,,,,,,,,,,,,,,,,x
V4O7,O,14,V,8,triclinic,2,0.3683,,,,,,,,,,,,,,,,,,,,,,,x
LaVO4,La,4,O,16,V,4,monoclinic,14,3.5131,400,155240,8294,,,,,,,,,,,,,,,,,,x
LaVO3,La,4,O,12,V,4,orthorhombic,62,0.998,63520,73898,73899,73900,73901,86554,86557,,,,,,,,,,,,,,x
LaVO4,La,2,O,8,V,2,tetragonal,141,3.1222,411083,,,,,,,,,,,,,,,,,,,,x
LaV3O9,La,2,O,18,V,6,monoclinic,11,2.57,411084,,,,,,,,,,,,,,,,,,,,x
LaVO3,La,1,O,3,V,1,cubic,221,0.0206,28925,,,,,,,,,,,,,,,,,,,,x
La11V4O26,La,11,O,26,V,4,triclinic,2,1.0185,80519,,,,,,,,,,,,,,,,,,,,x
TiVO4,Ti,1,O,4,V,1,orthorhombic,65,0.99,,,,,,,,,,,,,,,,,,,,,x
Ti3V2O9,Ti,6,O,18,V,4,monoclinic,15,0.7783,108830,,,,,,,,,,,,,,,,,,,,x
TiV3O8,Ti,1,O,8,V,3,monoclinic,8,0.4221,,,,,,,,,,,,,,,,,,,,,x
TiVO4,Ti,2,O,8,V,2,tetragonal,109,1.1814,,,,,,,,,,,,,,,,,,,,,x
TiVO3,Ti,2,O,6,V,2,trigonal,148,0.6253,,,,,,,,,,,,,,,,,,,,,x
TiVO4,Ti,1,O,4,V,1,tetragonal,119,0,,,,,,,,,,,,,,,,,,,,,x
Ti3VO8,Ti,6,O,16,V,2,hexagonal,186,1.5775,,,,,,,,,,,,,,,,,,,,,x
TiV2O7,Ti,4,O,28,V,8,cubic,205,2.0311,,,,,,,,,,,,,,,,,,,,,x
TiV15O24,Ti,1,O,24,V,15,triclinic,1,0.3397,,,,,,,,,,,,,,,,,,,,,x
TiVO3,Ti,4,O,12,V,4,triclinic,1,0,,,,,,,,,,,,,,,,,,,,,x
Ti4VO8,Ti,4,O,8,V,1,monoclinic,12,0,,,,,,,,,,,,,,,,,,,,,x
Ti3V5O16,Ti,3,O,16,V,5,monoclinic,8,1.1384,,,,,,,,,,,,,,,,,,,,,x
Ti15VO24,Ti,15,O,24,V,1,triclinic,1,0,,,,,,,,,,,,,,,,,,,,,x
VCrO4,Cr,2,O,8,V,2,orthorhombic,63,1.9112,36244,202755,27508,,,,,,,,,,,,,,,,,,x
VCrO4,Cr,4,O,16,V,4,monoclinic,12,2.2102,79865,,,,,,,,,,,,,,,,,,,,x
VCrO4,Cr,2,O,8,V,2,orthorhombic,74,1.8334,,,,,,,,,,,,,,,,,,,,,x
VCrO3,Cr,4,O,12,V,4,triclinic,1,1.2605,,,,,,,,,,,,,,,,,,,,,x
VCrO3,Cr,4,O,12,V,4,triclinic,1,1.3463,,,,,,,,,,,,,,,,,,,,,x
VCr2O4,Cr,4,O,8,V,2,cubic,227,0,,,,,,,,,,,,,,,,,,,,,x
V5CrO12,Cr,1,O,12,V,5,monoclinic,5,1.1851,,,,,,,,,,,,,,,,,,,,,x
V2CrO6,Cr,2,O,12,V,4,monoclinic,15,0,,,,,,,,,,,,,,,,,,,,,x
VCrO3,Cr,4,O,12,V,4,triclinic,1,1.2588,,,,,,,,,,,,,,,,,,,,,x
V3CrO10,Cr,1,O,10,V,3,tetragonal,115,0,,,,,,,,,,,,,,,,,,,,,x
VCrO3,Cr,4,O,12,V,4,monoclinic,5,0,,,,,,,,,,,,,,,,,,,,,x
VCrO3,Cr,4,O,12,V,4,triclinic,1,1.2464,,,,,,,,,,,,,,,,,,,,,x
VCrO3,Cr,4,O,12,V,4,triclinic,1,1.6264,,,,,,,,,,,,,,,,,,,,,x
VCrO3,Cr,4,O,12,V,4,triclinic,1,0,,,,,,,,,,,,,,,,,,,,,x
VCr2O6,Cr,8,O,24,V,4,orthorhombic,60,0,,,,,,,,,,,,,,,,,,,,,x
V2CrO7,Cr,4,O,28,V,8,cubic,205,0.6215,,,,,,,,,,,,,,,,,,,,,x
VCrO5,Cr,4,O,20,V,4,orthorhombic,62,1.1569,,,,,,,,,,,,,,,,,,,,,x
V4Cr2O13,Cr,8,O,52,V,16,monoclinic,14,2.3301,,,,,,,,,,,,,,,,,,,,,x
V3CrO8,Cr,1,O,8,V,3,monoclinic,8,0.0478,,,,,,,,,,,,,,,,,,,,,x
MnV,Mn,1,V,1,cubic,221,0,643868,104998,,,,,,,,,,,,,,,,,,,,,x
MnV3,Mn,1,V,3,cubic,225,0,,,,,,,,,,,,,,,,,,,,,,,x
Mn2V2O7,Mn,2,O,7,V,2,monoclinic,12,1.204,24321,81994,,,,,,,,,,,,,,,,,,,x
MnV2O6,Mn,1,O,6,V,2,monoclinic,12,1.6373,40850,,,,,,,,,,,,,,,,,,,,x
MnV2O4,Mn,2,O,8,V,4,cubic,227,1.4876,109148,,,,,,,,,,,,,,,,,,,,x
Mn2V2O7,Mn,8,O,28,V,8,triclinic,2,1.4568,81993,,,,,,,,,,,,,,,,,,,,x
Mn3V2O8,Mn,6,O,16,V,4,orthorhombic,64,1.9247,92361,422975,,,,,,,,,,,,,,,,,,,x
MnVO4,Mn,2,O,8,V,2,orthorhombic,63,0.1882,,,,,,,,,,,,,,,,,,,,,x
Mn2VO4,Mn,4,O,8,V,2,trigonal,160,0,,,,,,,,,,,,,,,,,,,,,x
MnV4O12,Mn,1,O,12,V,4,monoclinic,5,0.9208,,,,,,,,,,,,,,,,,,,,,x
MnV2O4,Mn,4,O,16,V,8,orthorhombic,62,0.8494,,,,,,,,,,,,,,,,,,,,,x
MnV2O6,Mn,2,O,12,V,4,monoclinic,15,1.9661,,,,,,,,,,,,,,,,,,,,,x
MnV3O8,Mn,1,O,8,V,3,monoclinic,8,0,,,,,,,,,,,,,,,,,,,,,x
MnV5O12,Mn,1,O,12,V,5,monoclinic,5,0.5676,,,,,,,,,,,,,,,,,,,,,x
MnVO4,Mn,2,O,8,V,2,orthorhombic,74,0.5005,,,,,,,,,,,,,,,,,,,,,x
Mn3VO8,Mn,3,O,8,V,1,trigonal,166,0.5215,,,,,,,,,,,,,,,,,,,,,x
MnV4O12,Mn,1,O,12,V,4,triclinic,1,1.3822,,,,,,,,,,,,,,,,,,,,,x
Mn3V2O10,Mn,3,O,10,V,2,triclinic,2,0.3393,,,,,,,,,,,,,,,,,,,,,x
Mn3VO8,Mn,6,O,16,V,2,hexagonal,186,0.7397,,,,,,,,,,,,,,,,,,,,,x
MnV3O8,Mn,1,O,8,V,3,triclinic,1,1.0783,,,,,,,,,,,,,,,,,,,,,x
Mn2V3O12,Mn,8,O,48,V,12,monoclinic,14,0,,,,,,,,,,,,,,,,,,,,,x
La2MnVO6,Mn,2,La,4,O,12,V,2,monoclinic,14,1.2869,163761,,,,,,,,,,,,,,,,,,x
VFe,Fe,1,V,1,cubic,221,0.0165,103681,103682,634034,,,,,,,,,,,,,,,,,,,,x
VFe3,Fe,3,V,1,cubic,225,0.0043,,,,,,,,,,,,,,,,,,,,,,,x
V2FeO4,Fe,2,O,8,V,4,cubic,227,0,28962,109149,,,,,,,,,,,,,,,,,,,x
VFeO4,Fe,6,O,24,V,6,triclinic,2,2.0493,10329,,,,,,,,,,,,,,,,,,,,x
VFeO4,Fe,2,O,8,V,2,orthorhombic,63,1.8223,82161,,,,,,,,,,,,,,,,,,,,x
V4Fe2O13,Fe,8,O,52,V,16,monoclinic,14,2.3112,86681,,,,,,,,,,,,,,,,,,,,x
V5Fe3O16,Fe,3,O,16,V,5,monoclinic,3,0.8124,,,,,,,,,,,,,,,,,,,,,x
V(FeO2)2,Fe,4,O,8,V,2,orthorhombic,74,0,,,,,,,,,,,,,,,,,,,,,x
V4FeO12,Fe,1,O,12,V,4,monoclinic,5,0,,,,,,,,,,,,,,,,,,,,,x
V3FeO8,Fe,2,O,16,V,6,triclinic,2,0.7163,,,,,,,,,,,,,,,,,,,,,x
V2FeO6,Fe,2,O,12,V,4,monoclinic,15,1.7192,,,,,,,,,,,,,,,,,,,,,x
V3FeO8,Fe,1,O,8,V,3,monoclinic,8,0.3902,,,,,,,,,,,,,,,,,,,,,x
V3FeO8,Fe,1,O,8,V,3,triclinic,1,1.2565,,,,,,,,,,,,,,,,,,,,,x
VFeO4,Fe,2,O,8,V,2,orthorhombic,74,1.7642,,,,,,,,,,,,,,,,,,,,,x
V5FeO12,Fe,1,O,12,V,5,monoclinic,5,0,,,,,,,,,,,,,,,,,,,,,x
V16FeO41,Fe,1,O,41,V,16,orthorhombic,25,0.1436,,,,,,,,,,,,,,,,,,,,,x
V3Co,Co,2,V,6,cubic,223,0,625530,102716,,,,,,,,,,,,,,,,,,,,,x
VCo3,Co,18,V,6,hexagonal,191,0,,,,,,,,,,,,,,,,,,,,,,,x
VCo3,Co,18,V,6,hexagonal,194,0,654804,625533,102718,,,,,,,,,,,,,,,,,,,,x
V2Co3O8,Co,6,O,16,V,4,orthorhombic,64,1.741,27288,27289,2645,,,,,,,,,,,,,,,,,,x
V3Co5O16,Co,5,O,16,V,3,monoclinic,8,0,,,,,,,,,,,,,,,,,,,,,x
V2Co2O7,Co,8,O,28,V,8,monoclinic,14,1.8291,2357,,,,,,,,,,,,,,,,,,,,x
V2CoO6,Co,3,O,18,V,6,triclinic,2,1.5745,40849,,,,,,,,,,,,,,,,,,,,x
V2CoO6,Co,1,O,6,V,2,monoclinic,12,2.0122,46003,,,,,,,,,,,,,,,,,,,,x
V5CoO15,Co,2,O,30,V,10,monoclinic,5,0.613,,,,,,,,,,,,,,,,,,,,,x
V3CoO8,Co,1,O,8,V,3,triclinic,1,1.1212,,,,,,,,,,,,,,,,,,,,,x
V3CoO8,Co,1,O,8,V,3,monoclinic,8,0.6205,,,,,,,,,,,,,,,,,,,,,x
V2CoO6,Co,2,O,12,V,4,monoclinic,15,2.0888,,,,,,,,,,,,,,,,,,,,,x
V2CoO6,Co,1,O,6,V,2,triclinic,1,1.4907,,,,,,,,,,,,,,,,,,,,,x
VCoO4,Co,2,O,8,V,2,orthorhombic,74,0.3679,,,,,,,,,,,,,,,,,,,,,x
V5CoO12,Co,1,O,12,V,5,monoclinic,5,0.0448,,,,,,,,,,,,,,,,,,,,,x
V2CoO4,Co,2,O,8,V,4,cubic,227,0,,,,,,,,,,,,,,,,,,,,,x
VCoO4,Co,2,O,8,V,2,orthorhombic,63,0.6005,,,,,,,,,,,,,,,,,,,,,x
VCoO4,Co,4,O,16,V,4,orthorhombic,62,0.2601,,,,,,,,,,,,,,,,,,,,,x
VCo3O8,Co,6,O,16,V,2,hexagonal,186,0,,,,,,,,,,,,,,,,,,,,,x
V3CoO8,Co,4,O,32,V,12,orthorhombic,45,1.8485,,,,,,,,,,,,,,,,,,,,,x
V3CoO8,Co,4,O,32,V,12,monoclinic,4,1.4267,,,,,,,,,,,,,,,,,,,,,x
VNi3,Ni,3,V,1,tetragonal,139,0.0074,647033,105442,105443,647029,647034,,,,,,,,,,,,,,,,,,x
VNi2,Ni,2,V,1,orthorhombic,71,0.0035,105441,,,,,,,,,,,,,,,,,,,,,,x
V3Ni,Ni,2,V,6,cubic,223,0,647028,,,,,,,,,,,,,,,,,,,,,,x
V2Ni3O8,Ni,6,O,16,V,4,orthorhombic,64,2.5708,93344,27286,2646,27287,,,,,,,,,,,,,,,,,x
V2NiO6,Ni,3,O,18,V,6,triclinic,2,2.1115,33881,,,,,,,,,,,,,,,,,,,,x
V2Ni2O7,Ni,8,O,28,V,8,monoclinic,14,2.6664,2358,,,,,,,,,,,,,,,,,,,,x
V9NiO15,Ni,2,O,30,V,18,triclinic,2,0.7252,,,,,,,,,,,,,,,,,,,,,x
V8Ni2O15,Ni,4,O,30,V,16,monoclinic,15,0.1131,,,,,,,,,,,,,,,,,,,,,x
V3NiO8,Ni,1,O,8,V,3,monoclinic,8,0.6744,,,,,,,,,,,,,,,,,,,,,x
V2NiO6,Ni,1,O,6,V,2,triclinic,1,1.7371,,,,,,,,,,,,,,,,,,,,,x
V2NiO6,Ni,2,O,12,V,4,monoclinic,15,2.691,,,,,,,,,,,,,,,,,,,,,x
V3NiO8,Ni,1,O,8,V,3,triclinic,1,1.1928,,,,,,,,,,,,,,,,,,,,,x
V11NiO18,Ni,1,O,18,V,11,triclinic,1,0.6177,,,,,,,,,,,,,,,,,,,,,x
V2Cu3O8,O,16,Cu,6,V,4,monoclinic,14,0.3292,27310,,,,,,,,,,,,,,,,,,,,x
VCu3O4,O,4,Cu,3,V,1,tetragonal,121,0.1009,418372,,,,,,,,,,,,,,,,,,,,x
V2Cu3O8,O,8,Cu,3,V,2,triclinic,2,0.0049,27184,,,,,,,,,,,,,,,,,,,,x
V2Cu2O7,O,14,Cu,4,V,4,monoclinic,15,0.0049,158375,164189,164190,23479,,,,,,,,,,,,,,,,,x
VCuO3,O,6,Cu,2,V,2,trigonal,148,0.6944,19046,,,,,,,,,,,,,,,,,,,,x
V3CuO8,O,8,Cu,1,V,3,monoclinic,8,0,,,,,,,,,,,,,,,,,,,,,x
V2Cu2O7,O,14,Cu,4,V,4,orthorhombic,43,0,34756,40973,1831,,,,,,,,,,,,,,,,,,x
V6Cu11O26,O,26,Cu,11,V,6,triclinic,2,0.0037,201626,,,,,,,,,,,,,,,,,,,,x
V2(CuO2)5,O,40,Cu,20,V,8,monoclinic,14,0.018,2557,,,,,,,,,,,,,,,,,,,,x
V2Cu2O7,O,14,Cu,4,V,4,triclinic,2,0.026,171028,,,,,,,,,,,,,,,,,,,,x
V2CuO6,O,6,Cu,1,V,2,monoclinic,12,0.001,21067,,,,,,,,,,,,,,,,,,,,x
VCuO3,O,3,Cu,1,V,1,triclinic,1,0.8024,9414,,,,,,,,,,,,,,,,,,,,x
VCuO4,O,8,Cu,2,V,2,orthorhombic,74,0.1484,,,,,,,,,,,,,,,,,,,,,x
V2CuO6,O,6,Cu,1,V,2,triclinic,2,0.092,28151,,,,,,,,,,,,,,,,,,,,x
V2Cu2O7,O,14,Cu,4,V,4,monoclinic,15,0,,,,,,,,,,,,,,,,,,,,,x
V6CuO15,O,30,Cu,2,V,12,triclinic,1,0.3578,,,,,,,,,,,,,,,,,,,,,x
V6Cu2O15,O,15,Cu,2,V,6,triclinic,2,0,,,,,,,,,,,,,,,,,,,,,x
V8CuO20,O,60,Cu,3,V,24,triclinic,1,0.5266,,,,,,,,,,,,,,,,,,,,,x
V12Cu2O29,O,58,Cu,4,V,24,triclinic,1,0.5737,,,,,,,,,,,,,,,,,,,,,x
V5CuO12,O,12,Cu,1,V,5,monoclinic,5,0.4964,,,,,,,,,,,,,,,,,,,,,x
V3CuO8,O,32,Cu,4,V,12,cubic,198,0.8437,,,,,,,,,,,,,,,,,,,,,x
V18Cu20O57,O,57,Cu,20,V,18,triclinic,2,0.0804,,,,,,,,,,,,,,,,,,,,,x
VZn3,Zn,3,V,1,cubic,221,0.2267,106240,,,,,,,,,,,,,,,,,,,,,,x
V4Zn5,Zn,5,V,4,tetragonal,139,0,106213,,,,,,,,,,,,,,,,,,,,,,x
V2ZnO4,Zn,2,O,8,V,4,cubic,227,1.654,55442,28963,55443,99181,76982,,,,,,,,,,,,,,,,x
V2Zn3O8,Zn,6,O,16,V,4,orthorhombic,64,2.7049,23776,,,,,,,,,,,,,,,,,,,,x
V2ZnO6,Zn,1,O,6,V,2,monoclinic,12,2.436,30880,26998,,,,,,,,,,,,,,,,,,,x
V2Zn2O7,Zn,2,O,7,V,2,monoclinic,12,2.3404,250002,,,,,,,,,,,,,,,,,,,,x
V2Zn2O7,Zn,4,O,14,V,4,monoclinic,15,2.5531,2886,,,,,,,,,,,,,,,,,,,,x
V3ZnO8,Zn,4,O,32,V,12,orthorhombic,45,1.933,9268,,,,,,,,,,,,,,,,,,,,x
V2Zn4O9,Zn,16,O,36,V,8,monoclinic,4,2.5496,59109,,,,,,,,,,,,,,,,,,,,x
VZn2O4,Zn,4,O,8,V,2,orthorhombic,74,1.6011,,,,,,,,,,,,,,,,,,,,,x
V2Zn2O7,Zn,2,O,7,V,2,monoclinic,12,2.0231,250002,,,,,,,,,,,,,,,,,,,,x
V3Zn2O8,Zn,2,O,8,V,3,trigonal,166,1.5222,,,,,,,,,,,,,,,,,,,,,x
SrV3O7,Sr,2,O,14,V,6,orthorhombic,59,2.3876,241184,241185,241186,241187,241176,241177,241178,241179,241180,241181,241182,241183,,,,,,,,,x
SrV2O6,Sr,4,O,24,V,8,orthorhombic,62,2.8228,65928,80615,,,,,,,,,,,,,,,,,,,x
Sr2VO4,Sr,2,O,4,V,1,tetragonal,139,0,69000,71450,72219,69012,,,,,,,,,,,,,,,,,x
Sr3V2O8,Sr,3,O,8,V,2,trigonal,166,3.676,73258,167701,,,,,,,,,,,,,,,,,,,x
Sr2VO4,Sr,16,O,32,V,8,orthorhombic,33,1.5296,80601,,,,,,,,,,,,,,,,,,,,x
SrVO3,Sr,1,O,3,V,1,cubic,221,0.2447,108826,96291,88982,,,,,,,,,,,,,,,,,,x
SrV4O9,Sr,2,O,18,V,8,tetragonal,85,2.4622,90926,,,,,,,,,,,,,,,,,,,,x
SrV3O7,Sr,4,O,28,V,12,orthorhombic,62,2.3882,77617,72604,,,,,,,,,,,,,,,,,,,x
SrV6O11,Sr,2,O,22,V,12,hexagonal,194,0,261129,93594,,,,,,,,,,,,,,,,,,,x
SrV6O15,Sr,4,O,60,V,24,monoclinic,14,0.0889,98575,,,,,,,,,,,,,,,,,,,,x
Sr2V2O7,Sr,16,O,56,V,16,tetragonal,76,3.452,10330,,,,,,,,,,,,,,,,,,,,x
Sr3V2O7,Sr,3,O,7,V,2,tetragonal,139,0.5916,71320,71451,,,,,,,,,,,,,,,,,,,x
Sr2V2O7,Sr,8,O,28,V,8,triclinic,2,3.3868,72200,20401,,,,,,,,,,,,,,,,,,,x
SrV6O11,Sr,2,O,22,V,12,hexagonal,194,0,71868,,,,,,,,,,,,,,,,,,,,x
Sr4V3O10,Sr,4,O,10,V,3,tetragonal,139,0.0488,73698,,,,,,,,,,,,,,,,,,,,x
SrV10O15,Sr,2,O,30,V,20,orthorhombic,64,0.9269,15273,,,,,,,,,,,,,,,,,,,,x
SrV13O18,Sr,1,O,18,V,13,trigonal,148,0.1271,97949,,,,,,,,,,,,,,,,,,,,x
Sr2V3O9,Sr,4,O,18,V,6,triclinic,1,1.7399,,,,,,,,,,,,,,,,,,,,,x
Sr2VO4,Sr,16,O,32,V,8,orthorhombic,33,1.5284,,,,,,,,,,,,,,,,,,,,,x
SrV4O10,Sr,2,O,20,V,8,triclinic,2,1.6631,408096,,,,,,,,,,,,,,,,,,,,x
Sr16V12O39,Sr,16,O,39,V,12,triclinic,1,0.6273,,,,,,,,,,,,,,,,,,,,,x
Sr20V15O49,Sr,20,O,49,V,15,tetragonal,79,0.0535,,,,,,,,,,,,,,,,,,,,,x
Sr16V8O31,Sr,16,O,31,V,8,triclinic,2,0.4336,,,,,,,,,,,,,,,,,,,,,x
Sr2V3O9,Sr,8,O,36,V,12,monoclinic,14,1.7636,,,,,,,,,,,,,,,,,,,,,x
SrV2(NiO4)2,Ni,8,Sr,4,O,32,V,8,tetragonal,110,2.7905,201789,,,,,,,,,,,,,,,,,,x
SrV2CuO7,Sr,4,O,28,Cu,4,V,8,orthorhombic,62,0.6649,33852,39620,,,,,,,,,,,,,,,,,x
SrV2ZnO7,Sr,4,Zn,4,O,28,V,8,monoclinic,14,2.7793,40312,,,,,,,,,,,,,,,,,,x
BaV6O11,Ba,2,O,22,V,12,hexagonal,194,0,260348,416459,416460,260342,260343,,,,,,,,,,,,,,,,x
Ba3V2O8,Ba,3,O,8,V,2,trigonal,166,3.7427,78169,418460,14237,167695,,,,,,,,,,,,,,,,,x
Ba8V7O22,Ba,8,O,22,V,7,trigonal,166,0,78035,,,,,,,,,,,,,,,,,,,,x
Ba2VO4,Ba,8,O,16,V,4,monoclinic,14,1.5245,72625,40708,,,,,,,,,,,,,,,,,,,x
BaV3O8,Ba,2,O,16,V,6,monoclinic,11,1.8698,82063,,,,,,,,,,,,,,,,,,,,x
Ba2V3O9,Ba,4,O,18,V,6,monoclinic,4,1.593,404713,,,,,,,,,,,,,,,,,,,,x
BaV13O18,Ba,1,O,18,V,13,trigonal,148,0.1564,51472,97948,,,,,,,,,,,,,,,,,,,x
BaV4O9,Ba,2,O,18,V,8,monoclinic,13,1.0483,173000,173001,173002,172998,172999,,,,,,,,,,,,,,,,x
Ba2V2O7,Ba,8,O,28,V,8,triclinic,2,3.4599,34320,,,,,,,,,,,,,,,,,,,,x
BaV10O15,Ba,2,O,30,V,20,orthorhombic,64,0.8319,82099,14173,413302,,,,,,,,,,,,,,,,,,x
BaVO3,Ba,5,O,15,V,5,trigonal,164,0,78168,78167,,,,,,,,,,,,,,,,,,,x
Ba5V5O14,Ba,5,O,14,V,5,trigonal,164,0.073,78163,78164,,,,,,,,,,,,,,,,,,,x
BaV2O6,Ba,3,O,18,V,6,orthorhombic,21,2.8551,23481,80938,,,,,,,,,,,,,,,,,,,x
Ba3V4O13,Ba,6,O,26,V,8,monoclinic,15,2.9456,202426,,,,,,,,,,,,,,,,,,,,x
BaV6O11,Ba,2,O,22,V,12,orthorhombic,63,0.9087,260348,,,,,,,,,,,,,,,,,,,,x
BaV13O18,Ba,1,O,18,V,13,triclinic,2,0.6831,97948,,,,,,,,,,,,,,,,,,,,x
BaV8O16,Ba,1,O,16,V,8,triclinic,1,0,,,,,,,,,,,,,,,,,,,,,x
BaV8O21,Ba,2,O,42,V,16,triclinic,2,1.3112,,,,,,,,,,,,,,,,,,,,,x
Ba10V10O29,Ba,20,O,58,V,20,triclinic,1,0.0602,,,,,,,,,,,,,,,,,,,,,x
Ba5V5O14,Ba,10,O,28,V,10,triclinic,1,0.7356,,,,,,,,,,,,,,,,,,,,,x
BaV10O17,Ba,2,O,34,V,20,monoclinic,15,0.0017,,,,,,,,,,,,,,,,,,,,,x
BaMn2V2O8,Mn,8,Ba,4,O,32,V,8,tetragonal,142,2.1893,72295,,,,,,,,,,,,,,,,,,x
BaV2(CoO4)2,Co,8,Ba,4,O,32,V,8,tetragonal,142,1.8964,60580,,,,,,,,,,,,,,,,,,x
BaV2(NiO4)2,Ni,2,Ba,1,O,8,V,2,trigonal,148,2.6682,201621,96086,96087,,,,,,,,,,,,,,,,x
BaV2CuO7,O,28,Ba,4,Cu,4,V,8,orthorhombic,62,0.7192,40839,,,,,,,,,,,,,,,,,,x
BaV2(CuO4)2,O,32,Ba,4,Cu,8,V,8,tetragonal,122,0.1581,33804,,,,,,,,,,,,,,,,,,x
Ba2V2ZnO8,Zn,4,Ba,8,O,32,V,8,monoclinic,14,3.4336,414009,,,,,,,,,,,,,,,,,,x
CaV2O4,Ca,4,O,16,V,8,orthorhombic,62,0.9624,164185,164186,164187,164188,27925,,,,,,,,,,,,,,,,x
CaVO3,Ca,4,O,12,V,4,orthorhombic,62,0.2354,81056,88978,,,,,,,,,,,,,,,,,,,x
CaV2O5,Ca,2,O,10,V,4,orthorhombic,59,1.8884,82689,,,,,,,,,,,,,,,,,,,,x
CaV2O6,Ca,1,O,6,V,2,monoclinic,12,2.9196,21064,166516,,,,,,,,,,,,,,,,,,,x
Ca10V6O25,Ca,10,O,25,V,6,trigonal,143,2.35,,,,,,,,,,,,,,,,,,,,,x
CaV3O7,Ca,4,O,28,V,12,orthorhombic,62,2.4386,2507,241188,241189,241190,241191,241192,241193,241194,241195,241196,241197,241198,241199,241200,241201,241202,241203,241204,241205,241206,x
CaV4O9,Ca,2,O,18,V,8,tetragonal,85,2.4882,2556,90927,,,,,,,,,,,,,,,,,,,x
Ca2V2O7,Ca,4,O,14,V,4,triclinic,2,3.0528,20609,,,,,,,,,,,,,,,,,,,,x
Ca3V2O8,Ca,3,O,8,V,2,trigonal,166,3.5139,412273,,,,,,,,,,,,,,,,,,,,x