formula,element1,n1,element2,n2,element3,n3,crystalsystem,spacegroup,bandgap,,,,,,,,,,,,,,,,,,,,,x
Ca10V6O25,Ca,10,O,25,V,6,trigonal,147,2.3156,,,,,,,,,,,,,,,,,,,,,x
Ca3V10O25,Ca,6,O,50,V,20,triclinic,1,0.9212,,,,,,,,,,,,,,,,,,,,,x
CaV2CoO7,Ca,8,Co,8,O,56,V,16,monoclinic,14,2.0216,39730,165103,,,,,,,,,,,,,,,,,x
CaV2CuO7,Ca,6,O,42,Cu,6,V,12,monoclinic,13,0.5803,33851,,,,,,,,,,,,,,,,,,x
CaV4(CuO4)3,Ca,1,O,12,Cu,3,V,4,cubic,204,0,250094,,,,,,,,,,,,,,,,,,x
K4V2O7,K,4,O,7,V,2,monoclinic,12,3.4405,250388,,,,,,,,,,,,,,,,,,,,x
KV3O8,K,2,O,16,V,6,monoclinic,11,2.0824,50008,421064,29075,23975,,,,,,,,,,,,,,,,,x
KVO3,K,4,O,12,V,4,orthorhombic,57,3.0372,44528,33706,1486,,,,,,,,,,,,,,,,,,x
KV4O8,K,1,O,8,V,4,tetragonal,87,0.0026,100596,,,,,,,,,,,,,,,,,,,,x
K3V3O8,K,3,O,8,V,3,trigonal,164,1.8032,100782,,,,,,,,,,,,,,,,,,,,x
K3VO4,K,3,O,4,V,1,tetragonal,121,3.6663,4138,,,,,,,,,,,,,,,,,,,,x
K2V8O21,K,2,O,21,V,8,monoclinic,12,1.2759,154164,,,,,,,,,,,,,,,,,,,,x
K2V3O8,K,4,O,16,V,6,tetragonal,100,2.0111,245500,1925,,,,,,,,,,,,,,,,,,,x
K5V3O10,K,20,O,40,V,12,tetragonal,92,3.0582,48198,,,,,,,,,,,,,,,,,,,,x
K3V5O14,K,3,O,14,V,5,trigonal,157,2.3325,248227,24068,,,,,,,,,,,,,,,,,,,x
KV6O11,K,2,O,22,V,12,hexagonal,194,0.015,410568,,,,,,,,,,,,,,,,,,,,x
K3VO4,K,12,O,16,V,4,cubic,198,4.0413,108936,,,,,,,,,,,,,,,,,,,,x
K3VO4,K,3,O,4,V,1,tetragonal,121,3.6294,4138,,,,,,,,,,,,,,,,,,,,x
KVO2,K,1,O,2,V,1,trigonal,164,1.4364,,,,,,,,,,,,,,,,,,,,,x
KV6O14,K,2,O,28,V,12,triclinic,2,1.0927,,,,,,,,,,,,,,,,,,,,,x
KV13O20,K,2,O,40,V,26,triclinic,2,0.5907,,,,,,,,,,,,,,,,,,,,,x
KV4O10,K,2,O,20,V,8,orthorhombic,63,0,,,,,,,,,,,,,,,,,,,,,x
K3V14O28,K,6,O,56,V,28,tetragonal,87,0.0083,,,,,,,,,,,,,,,,,,,,,x
KV12O30,K,2,O,60,V,24,hexagonal,192,0.3672,,,,,,,,,,,,,,,,,,,,,x
KV2CrO7,Cr,2,K,2,O,14,V,4,monoclinic,13,2.1558,245133,,,,,,,,,,,,,,,,,,x
K2MnV4O12,K,4,Mn,2,O,24,V,8,monoclinic,14,1.993,92641,203215,,,,,,,,,,,,,,,,,x
K2MnV2O7,K,4,Mn,2,O,14,V,4,tetragonal,113,2.41,417892,,,,,,,,,,,,,,,,,,x
KMnVO4,K,16,Mn,16,O,64,V,16,monoclinic,14,2.5977,158975,,,,,,,,,,,,,,,,,,x
KV3Cu5O13,K,2,O,26,Cu,10,V,6,triclinic,2,0.0142,400802,,,,,,,,,,,,,,,,,,x
YVO4,Y,2,O,8,V,2,tetragonal,141,2.9705,2504,26894,15604,174549,246708,78074,36060,246709,,,,,,,,,,,,,x
YVO3,Y,4,O,12,V,4,orthorhombic,62,1.5639,246953,246954,155476,155477,155478,155479,155480,95577,95578,95579,,,,,,,,,,,x
Y2V2O7,Y,4,O,14,V,4,cubic,227,0.036,160600,,,,,,,,,,,,,,,,,,,,x
Y2V2O7,Y,4,O,14,V,4,cubic,227,1.0612,160865,,,,,,,,,,,,,,,,,,,,x
Y2V2O7,Y,2,O,7,V,2,monoclinic,12,0.4869,,,,,,,,,,,,,,,,,,,,,x
,,,,,,,,,,,,,,,,,,,,,,,,,,,,,,x